1
Properties=species:S:1:pos:R:3:REF_forces:R:3 config_type=IsolatedAtom REF_energy=-13.587222780835477 pbc="F F F"
H        0.00000000       0.00000000       0.00000000       0.00000000       0.00000000       0.00000000
1
Properties=species:S:1:pos:R:3:REF_forces:R:3 config_type=IsolatedAtom REF_energy=-1029.4889999855063 pbc="F F F"
C        0.00000000       0.00000000       0.00000000       0.00000000       0.00000000       0.00000000
1
Properties=species:S:1:pos:R:3:REF_forces:R:3 config_type=IsolatedAtom REF_energy=-2041.8396277138045 pbc="F F F"
O        0.00000000       0.00000000       0.00000000       0.00000000       0.00000000       0.00000000
9
Properties=species:S:1:pos:R:3:REF_forces:R:3 REF_energy=-4209.638743793452 pbc="F F F"
C        0.04866650       0.52291586       0.27264800       1.31633709      -2.06368572      -2.07879548
C       -1.25537821      -0.01777466      -0.31985085       0.46074846       3.17133880       1.18715519
O        1.08361645      -0.44624198       0.08358815       0.96343953      -1.05455331       0.81729714
H        0.50132509       1.46470487      -0.07682514      -0.86080139       0.77138706      -0.28568789
H       -0.05628971       0.53129008       1.32289858      -0.11996007       0.51084599       1.99949977
H       -1.67461926      -0.75149239       0.33087404      -0.25263440      -1.40288866       0.54647403
H       -1.94988896       0.85237857      -0.21224233      -0.29598547      -0.29816906      -0.86107851
H       -1.01842705      -0.34463373      -1.30761252      -0.43667717      -0.40956226      -1.42273542
H        1.37555173      -0.68969178      -0.82144466      -0.77446652       0.77528716       0.09787111
9
Properties=species:S:1:pos:R:3:REF_forces:R:3 REF_energy=-4209.385338925541 pbc="F F F"
C        0.00715029      -0.54214789       0.34142286       0.55560623       1.29151782       1.01792553
C       -0.91814450       0.62562383       0.46096463       1.00284220       2.08384245       0.81166699
O        0.78411146      -0.10584086      -0.71664219       2.96252026       0.10325124      -1.49069343
H        0.66722854      -0.76954840       1.21644207      -0.58824125      -0.20403875       0.11946657
H       -0.50121285      -1.38990464      -0.04542492      -1.12600433      -1.80636440       0.21903420
H       -1.87610867       0.57719678       0.91143489      -1.29831844      -0.34290497       1.75822882
H       -0.36417276       1.64226031       0.67145479      -0.82533384      -1.71111782       0.03799145
H       -1.22624961       0.71610058      -0.54591921      -0.44653668       0.54046346      -2.02389322
H        1.70852412      -0.09226057      -0.39378291      -0.23653410       0.04535097      -0.44972696
9
Properties=species:S:1:pos:R:3:REF_forces:R:3 REF_energy=-4209.613747356527 pbc="F F F"
C        0.11569034       0.60976415      -0.06919295      -0.73933208       0.94107751      -0.24672657
C       -0.93715852      -0.26437862      -0.79229164      -0.46531751       2.13358785       0.74352740
O        0.70549375      -0.31673677       0.79523094       1.32955678      -0.30541401       1.30048557
H        0.95788159       1.06264303      -0.64499165      -0.57475987       0.23236249      -0.54866204
H       -0.46041296       1.53186560       0.47691244       1.16100033      -1.73019469      -0.74645743
H       -1.59428624       0.30266455      -1.48154499      -0.41043094       0.27133934       0.36575848
H       -0.53070964      -1.01769791      -1.44511260       0.70717077      -1.12388389      -0.02168988
H       -1.45213547      -0.61051306       0.14743572      -0.30649002      -0.52404861      -1.12218279
H        1.66879917      -0.35842773       0.58983444      -0.70139746       0.10517397       0.27594732
9
Properties=species:S:1:pos:R:3:REF_forces:R:3 REF_energy=-4209.931872284904 pbc="F F F"
C        0.06496761       0.47305057       0.21380164       1.36478511       1.29667242      -0.63814508
C       -1.26199211       0.03579844      -0.30400667      -0.41153229       1.62857553       0.76547126
O        1.08774984      -0.46851024       0.13938336       0.66245774      -0.91893214       0.38220845
H        0.39568663       1.46277582      -0.25071277      -0.40435974      -0.48447681      -0.35307543
H        0.13724630       0.76738232       1.23537187      -0.74835938       0.22970011       1.81502429
H       -1.67423154      -0.83112749       0.16612829      -0.24647296      -1.27027984       0.62207933
H       -2.02084539       0.84241492      -0.18060444       0.12659414      -0.02281412      -0.15109557
H       -1.11074633      -0.12975420      -1.34092620      -0.22140203      -0.47260860      -1.81988809
H        1.26949763      -0.73984617      -0.76684886      -0.12171053       0.01416344      -0.62257915
9
Properties=species:S:1:pos:R:3:REF_forces:R:3 REF_energy=-4209.230721572053 pbc="F F F"
C       -0.34595296       0.39859502      -0.31667774       0.23075169       0.03330777       2.47081258
C       -0.51941434      -0.04143845       1.21923210      -0.85000692       4.20452459      -1.75727921
O        0.76216570      -0.37445945      -0.85403498      -0.76875959       1.29486864      -0.58349442
H       -1.25878108       0.11236654      -0.87516619       0.14955152      -0.46938536      -0.11894649
H       -0.52324401       1.58118298      -0.23803313       1.53829479      -1.51577424      -0.90306935
H       -1.47509931       0.55053976       1.45606135       0.15593973      -1.77360505       0.34606953
H       -0.33699565      -1.08198404       1.25115187      -0.60335481      -1.84471590       0.60225813
H        0.16061256       0.51016271       1.90451290       0.57814838      -0.24355486      -0.33257788
H        1.64617502       0.01425508      -0.69703302      -0.43056468       0.31433441       0.27622705
9
Properties=species:S:1:pos:R:3:REF_forces:R:3 REF_energy=-4209.692935866977 pbc="F F F"
C        0.21858176       0.40961200      -0.28216438      -1.59362601       0.70437135      -0.83850417
C       -1.36844581      -0.07540486      -0.37888792       1.48894194       2.64781130       2.03182579
O        1.09415014      -0.35768141       0.55950896      -1.48744901       1.51940211       0.49705516
H        0.61566180       0.43999308      -1.32144769       0.18896273      -0.58019709       0.07079692
H        0.18458446       1.57422648      -0.09430366       0.13980930      -1.61134060       0.50462680
H       -1.61274348      -0.85197714      -1.07916842       0.05940642      -0.99614643      -0.60165680
H       -1.71112528      -0.31518341       0.67980555       0.19519410      -0.13397546      -0.85542676
H       -1.95787523       0.86255541      -0.64898057       0.40468349      -0.78839203       0.00502286
H        0.81454273      -0.01594797       1.45996084       0.60407703      -0.76153315      -0.81373981
9
Properties=species:S:1:pos:R:3:REF_forces:R:3 REF_energy=-4209.534219296525 pbc="F F F"
C        0.20692216       0.54739901       0.07306394      -0.47947550      -0.46667927      -0.96299684
C       -1.17522014      -0.00282589       0.66058808       2.80213720       0.45017423      -2.26684778
O        0.91526256      -0.48557425      -0.63653470      -0.22891937      -0.07684694      -0.44477975
H        0.17893828       1.48787874      -0.63370711      -0.52342414      -1.03299631       1.24712463
H        0.77153307       0.82297293       1.00753507       0.34541061      -0.09972184      -0.84254275
H       -1.42077592      -0.99852599       0.33684880      -0.15275840      -0.87756910      -0.71831306
H       -1.02473807      -0.05409292       1.67771672       0.13933807      -0.20763043       3.13624216
H       -1.92529096       0.68073346       0.46147348      -2.35861272       1.67241310      -0.53208886
H        0.42936972      -0.72194907      -1.48817978       0.45630425       0.63885650       1.38420219
9
Properties=species:S:1:pos:R:3:REF_forces:R:3 REF_energy=-4209.830317749645 pbc="F F F"
C       -0.09077590      -0.57823931       0.20927193       1.59350522       2.66790761       0.25984578
C       -1.13913035       0.56983293       0.31314004       1.09864182      -0.33136653       2.04423558
O        1.11523301      -0.05665123      -0.50259948      -1.35518158      -1.30841048      -0.24807296
H        0.28736041      -0.88899935       1.21970079      -0.59967047      -0.51592146      -0.29873038
H       -0.58102781      -1.36001791      -0.41253582       0.62306494      -0.21918450       0.27276033
H       -1.99627186       0.23579947       0.93368986      -0.16150926       0.10873248      -0.15643853
H       -0.79572448       1.58761826       0.71368948       0.06150413      -1.15700088      -0.16163709
H       -1.41081346       0.71288019      -0.68805422      -1.07777367       0.63796150      -2.07020311
H        1.44865582       0.71063600      -0.01365095      -0.18258109       0.11728227       0.35824031
9
Properties=species:S:1:pos:R:3:REF_forces:R:3 REF_energy=-4209.679791043954 pbc="F F F"
C        0.22031151       0.03346581      -0.57507774      -1.87225036       0.22148590       0.95481394
C       -1.28005131      -0.39935211      -0.07926143       2.48755062      -0.97400466      -0.00955479
O        0.94281124       0.30616972       0.60121389      -1.64249878      -0.85182829       1.19684126
H        0.75397223      -0.68407094      -1.21692650      -0.19452207      -0.65186870      -0.27357774
H        0.12806534       0.96504907      -1.15418431      -0.27835593       0.35132569      -0.52932472
H       -1.60187309       0.37044273       0.61574803       0.31966235       0.16316407       1.29111405
H       -2.11273793      -0.30003522      -0.74300395      -0.50888846      -0.16420058      -1.88837396
H       -1.31743062      -1.47841799       0.31821654       0.16853449       1.37598983      -0.02690444
H        1.81137839       0.62552111       0.43402434       1.52076814       0.52993675      -0.71503361
9
Properties=species:S:1:pos:R:3:REF_forces:R:3 REF_energy=-4209.428495278138 pbc="F F F"
C       -0.17454395       0.34042422       0.46456124       2.95331998      -2.39608382      -1.51989309
C        0.37402118       0.95465605      -0.85422662      -0.58460668      -1.78683363      -2.95660400
O       -0.22854253      -1.17140841       0.44415648       0.62830798       1.49874114      -1.03039512
H        0.54976581       0.63442997       1.27237316      -0.38581699       0.03948418      -0.10804121
H       -1.13249458       0.71517068       0.68972572      -1.93621792       0.48906921       0.45508221
H        0.03744733       1.97021497      -1.08693875       0.38281482       0.83585701       0.69408910
H        1.48785791       0.79789631      -1.02382398      -0.77857715       0.45329755       0.46882414
H       -0.06846222       0.52591419      -1.95293615       0.60817665       0.12523654       2.82991021
H        0.37564792      -1.48322077      -0.30537186      -0.88740069       0.74123182       1.16702772
9
Properties=species:S:1:pos:R:3:REF_forces:R:3 REF_energy=-4209.790650758195 pbc="F F F"
C        0.24800917       0.27768510       0.48282236      -3.39250413      -1.04026744      -0.28177118
C       -0.00789810       0.98989723      -0.88983955      -1.33284419      -2.48382283       1.30749800
O       -0.23086498      -1.11366376       0.34249587       0.52200335       0.36804450       0.39197335
H        1.27289177       0.19435676       0.72763899       1.99433638       0.51077385       0.40117707
H       -0.32978064       0.73430151       1.37175173       0.63973926       0.02363631      -0.94502066
H       -0.11766405       2.03935976      -0.82295226       0.22801902       1.82178608       0.13285184
H        0.75267524       0.64920416      -1.54862051       1.37974554       0.00241123      -1.10782102
H       -0.94371326       0.60266504      -1.39597102       0.29461733       0.12457351       0.77312831
H        0.16802179      -1.64841596       1.08164292      -0.33311261       0.67286479      -0.67201571
9
Properties=species:S:1:pos:R:3:REF_forces:R:3 REF_energy=-4209.243176795967 pbc="F F F"
C        0.17109885      -0.60452899      -0.28997676      -0.25305365       3.47854194       2.41196445
C       -1.15293777       0.16502104      -0.34778349      -0.75358355      -1.75591894      -1.38763188
O        0.94960622       0.35935636       0.53840139       0.20191312      -0.83480245      -0.65820966
H        0.38698372      -1.60685046       0.05454097      -1.06523897      -1.06510728       1.02963428
H        0.49997063      -0.68069666      -1.26917725       1.66691850       0.46016878      -2.78842309
H       -1.08544976       1.15858319      -0.89001447       0.05754618      -1.03437858       0.16787099
H       -2.04418887      -0.45849601      -0.60732504       0.15229797       0.28224596      -0.76497035
H       -1.38718339       0.34850708       0.65706696      -0.65667795       0.83017780       2.35370649
H        0.25510927       0.77047242       1.10827296       0.64987836      -0.36092722      -0.36394122
9
Properties=species:S:1:pos:R:3:REF_forces:R:3 REF_energy=-4209.542009113529 pbc="F F F"
C       -0.37922961       0.24380599      -0.26124860      -0.43671455      -2.87003628      -2.34792562
C       -0.60099332       0.01456503       1.20724273       1.02228900       0.84956346       1.21186041
O        0.89090550      -0.20829768      -0.90469070      -1.13587762      -0.05482477       1.67743174
H       -1.31138116      -0.08834907      -0.95400956       1.51393898      -0.23161378       1.41109408
H       -0.48976330       1.25562146      -0.43137569       0.52313541       3.23587904      -0.54743963
H       -1.44797833       0.68171542       1.59929346       0.87128892      -0.54110860      -0.41272261
H       -0.91840797      -1.01720280       1.40036909       0.21893120      -0.45229112       0.41623998
H        0.39861111       0.30332281       1.80025511      -1.86981969      -0.64321750      -0.90493423
H        1.30668280      -0.90899422      -0.32659380      -0.70717169       0.70764951      -0.50360407
9
Properties=species:S:1:pos:R:3:REF_forces:R:3 REF_energy=-4209.796723394832 pbc="F F F"
C       -0.07170884      -0.47016071       0.21801677       1.40257190       0.25392309      -0.85593512
C       -1.21386694       0.56747901       0.24802651      -0.46096638      -0.95150678       1.43632323
O        1.15481310      -0.04526963      -0.42882339      -1.45505856       2.21476874      -0.44547441
H        0.26979287      -0.70940276       1.21476695      -0.40634252      -0.56198478       1.29322112
H       -0.36824771      -1.39527027      -0.33409198      -0.64257869       0.01562485       0.48189804
H       -2.00506439       0.21387608       1.03561367       1.07859133       0.36926675      -1.17277923
H       -1.00381878       1.62882417       0.50713936       0.59731827      -0.30833463       0.06959267
H       -1.69120251       0.57133560      -0.71678706      -0.64490209       0.14334066      -0.96697464
H        1.78581291      -0.75193489      -0.45318255       0.53136669      -1.17509790       0.16012832
9
Properties=species:S:1:pos:R:3:REF_forces:R:3 REF_energy=-4209.799884998128 pbc="F F F"
C        0.26839903      -0.05917958      -0.46254953      -0.74134896      -1.86365043       3.18979382
C       -1.24189308       0.18227380      -0.54457041      -0.29694619      -2.53014856       0.88287802
O        0.89218993      -0.14833397       0.90963088      -0.54420755       2.05798419      -1.32363028
H        0.42677752      -1.08270610      -0.82559251       0.30784612      -0.14967205      -0.54080218
H        0.77936152       0.66400469      -1.02401853       1.25247849       1.37284280      -1.42304061
H       -1.58027185       1.15369874      -0.24373761      -0.26676344       1.34479195      -0.01692727
H       -1.52990771      -0.10669737      -1.58488900      -0.20194042       0.49321249       0.18544499
H       -1.83588254      -0.54818105       0.14684931       0.97037621       0.79205482      -0.86854885
H        1.17711608       0.80613884       1.09341306      -0.47949422      -1.51741522      -0.08516764
9
Properties=species:S:1:pos:R:3:REF_forces:R:3 REF_energy=-4209.57223034912 pbc="F F F"
C       -0.38994440       0.26576500      -0.24291375      -0.73575557       1.45723906      -4.76411902
C       -0.50808169       0.03667784       1.15883670       0.55215982      -2.67792678       1.31473925
O        0.79192456      -0.26015323      -0.86359425      -1.98597998      -0.10046854      -1.17010908
H       -1.27500356      -0.19894527      -0.76005362       0.42170728      -0.50508436       0.01925736
H       -0.65201515       1.32076410      -0.65339143       1.05009744      -0.34786216       0.97131760
H       -1.22437748       0.61402472       1.68611063      -1.08860146       0.93089322       0.78987848
H       -0.74943164      -1.06015618       1.23814626      -0.02706940       0.43687756       0.55554725
H        0.47892787       0.11576695       1.58634896       0.86350326       0.48177304       0.95526532
H        1.55135928      -0.26738230      -0.30323055       0.94993861       0.32455891       1.32822284
9
Properties=species:S:1:pos:R:3:REF_forces:R:3 REF_energy=-4209.831736446031 pbc="F F F"
C        0.05207265       0.01478155       0.54658935       0.60732824       0.56980839       1.52626938
C       -1.19231157       0.45795607      -0.18041158       0.41475594      -0.83785774       0.83137907
O        1.01295527      -0.47769034      -0.35319357       0.21669552      -0.67553668       0.17987187
H        0.36948354       0.85764837       1.26408153       0.35999005      -0.38938466      -0.90800808
H       -0.14347023      -0.78256135       1.32821531      -0.22744289       0.04035876      -0.72147572
H       -1.85031536       0.78704207       0.61003459      -1.19589154       0.04557605       0.58699467
H       -0.98972113       1.39184278      -0.72692122      -0.03736302      -0.32198837      -0.93311897
H       -1.55764213      -0.48663972      -0.66033766      -0.31239898       1.01675892      -0.55778946
H        1.67885223       0.18053875      -0.57210784       0.17432667       0.55226534      -0.00412271
9
Properties=species:S:1:pos:R:3:REF_forces:R:3 REF_energy=-4209.628151535448 pbc="F F F"
C       -0.01924804       0.27150377       0.46588814       1.75066823      -1.41871256       0.90262280
C        0.62881523       0.93756008      -0.80682530       0.72780475      -4.05155778       1.13139295
O       -0.59248646      -1.06181631       0.33462599      -1.20953546       2.20560147       1.08670861
H        0.79229939       0.17092029       1.35121978      -1.27439191       0.63686307      -1.48913143
H       -0.81822014       0.95724086       0.81933904      -0.16033082      -0.31600974       0.13189740
H       -0.09678283       0.71686028      -1.61188205       0.08496417       0.77170793      -0.32916988
H        0.83269267       1.94708391      -0.49545475       0.29215859       1.12632700      -0.47249413
H        1.60694069       0.30074749      -1.03392464      -1.45163472       1.46139386       0.15325488
H       -0.17681998      -1.64706391      -0.27830141       1.24029722      -0.41561320      -1.11508120
9
Properties=species:S:1:pos:R:3:REF_forces:R:3 REF_energy=-4209.62042102245 pbc="F F F"
C        0.08940844      -0.58464173      -0.07514811       0.58360555       1.81208140       1.38842564
C       -1.10033650       0.05498033      -0.70068924      -0.49788655       1.92858427       2.16036759
O        0.91192501       0.49398784       0.65633118      -2.03234392      -0.99536477      -2.31905804
H       -0.17178362      -1.32299577       0.67471098      -0.28016454      -0.76482462       0.42425293
H        0.64466891      -1.01947217      -0.85810935       1.68938074      -1.05663729      -1.22573449
H       -0.71501446       0.85476663      -1.36094029      -0.36371224       0.20904952      -0.03028395
H       -1.91542805      -0.48196671      -1.17497317       0.02791961      -1.01603690      -0.52271246
H       -1.59079329       0.48945462       0.23119305       0.01417712       0.45046430      -1.02125603
H        1.31834846      -0.05104525       1.31487886       0.85902425      -0.56731591       1.14599882
9
Properties=species:S:1:pos:R:3:REF_forces:R:3 REF_energy=-4209.3293986168455 pbc="F F F"
C        0.12062118       0.44227280       0.28298011      -0.25930919      -1.65088726       2.98997651
C       -0.89615760       0.70101109      -0.79663271      -0.14707447      -4.32494320      -0.24285280
O        0.71630363      -1.02105875       0.41233248      -1.63149692       2.80655214      -3.70340750
H        1.00637809       1.05963927       0.29029808       0.66613945       0.82691307      -0.50622392
H       -0.39351912       0.64723258       1.29317299       0.63139284      -0.19435731      -0.74855129
H       -0.97984914       1.64137565      -1.25303749       0.41813185       2.14415997      -0.66068589
H       -0.52799387      -0.06252203      -1.56215410      -0.73521384       0.76763957      -0.03811913
H       -1.96089967       0.39262795      -0.52480446       0.99187228       0.07614755      -0.03026826
H        0.72610408      -1.09568431       1.33214962       0.06555799      -0.45122452       2.94013228
9
Properties=species:S:1:pos:R:3:REF_forces:R:3 REF_energy=-4209.891127718159 pbc="F F F"
C        0.16915981      -0.12523295      -0.48753594       2.24574884      -0.60986870       0.08515469
C       -0.40588719       1.21414001      -0.20101180      -0.17580151       0.55305302       0.23569541
O        0.25140440      -1.01529361       0.59129007       0.47091244      -0.46183007       1.29884521
H       -0.36170052      -0.66087521      -1.22699723      -1.55012505      -0.54515248      -1.78716242
H        1.22838361      -0.10368892      -0.99189142      -1.08544497       0.46061414       0.90156037
H       -0.54057226       1.76288487      -1.15637444      -0.06338665       0.24592958       0.25221249
H       -1.37381993       1.13372198       0.33571311      -0.31236617      -0.15096830      -0.33590766
H        0.20777687       1.78388197       0.51704343       0.40418151       0.26411500      -0.14036059
H       -0.33082704      -0.77680878       1.34153732       0.06628150       0.24410780      -0.51003754
9
Properties=species:S:1:pos:R:3:REF_forces:R:3 REF_energy=-4209.715040550207 pbc="F F F"
C        0.44825161      -0.11677560       0.23650182      -0.29451274      -0.23311140      -0.33577237
C        0.33415841       0.93163038      -0.85115974       1.76888671       2.65475662      -0.82530536
O       -0.71879924      -0.75512670       0.64323431      -0.47421060      -0.03309946       1.08381278
H        1.10038505      -0.82609440      -0.29459219       0.73438327      -0.72256648       0.34880611
H        0.88414913       0.19105988       1.20316740       0.66289848       0.49326371      -0.27281140
H       -0.13030906       0.61806498      -1.82783385      -0.27829391      -0.15060798       0.72812171
H        0.06064686       2.04836714      -0.63604820      -0.22712011      -1.70862221       0.07070143
H        1.42606444       1.05907076      -1.19562173      -0.88418948       0.02554952       0.26083797
H       -1.25542783      -0.81544635      -0.13504787      -1.00784161      -0.32556231      -1.05839084
9
Properties=species:S:1:pos:R:3:REF_forces:R:3 REF_energy=-4210.018971964335 pbc="F F F"
C        0.45767464      -0.33632159      -0.12787705      -1.03792712       0.16327026      -0.09980694
C        0.23595841       1.10811303      -0.69240910      -0.03485892      -1.48819103       0.45803152
O       -0.64402547      -0.73325119       0.71324338       0.04870426      -0.69049660      -1.87498154
H        0.47281586      -1.07264732      -1.00019711       0.23067903       0.52435791       0.76824491
H        1.40839649      -0.41605358       0.48006466      -0.19346164       0.10694561      -0.64316505
H        0.03278466       1.82193648       0.12425881       0.35437728       0.24280024       0.00703762
H        1.09045679       1.32573650      -1.31724131       0.99664790       0.76719184      -0.19945962
H       -0.60070976       1.16507505      -1.39822523      -0.59887322      -0.28014943      -0.01434475
H       -0.44727271      -0.38311655       1.56436790       0.23471237       0.65427114       1.59844385
9
Properties=species:S:1:pos:R:3:REF_forces:R:3 REF_energy=-4209.703460048268 pbc="F F F"
C        0.35609746       0.06002121      -0.44265196      -0.71626419      -2.48228665       1.08432818
C       -0.62196374       1.12122239      -0.15584015      -0.29305770       1.39474412       3.20201720
O        0.25940872      -1.10367339       0.47673004       0.54271744       1.14438324       0.18211886
H       -0.07451368      -0.41603374      -1.32975639       0.91059060      -0.16022206      -0.89154742
H        1.37773372       0.45631566      -0.48993293       0.49390047      -0.15141624      -0.52187449
H       -1.37508499       0.77114569       0.57725943      -0.17451467      -0.47849632      -0.10677098
H       -0.23353581       2.01195201       0.40055020       0.20365345      -0.03709526      -0.44681837
H       -1.19581410       1.44404319      -0.97790166      -0.81176762       0.76291018      -1.75512282
H        0.55062175      -0.82571259       1.38415482      -0.15525772       0.00747903      -0.74633021
9
Properties=species:S:1:pos:R:3:REF_forces:R:3 REF_energy=-4209.548976519044 pbc="F F F"
C        0.28759304       0.03127838      -0.45367980       2.05290714      -1.83844570       1.03299153
C       -0.62058004       1.12344846      -0.14740719      -2.62060054       1.07707602       0.21751709
O        0.32495227      -1.09266227       0.49250382      -0.33222137      -0.23892821      -1.91121651
H        0.04415067      -0.27370139      -1.48690486       0.17714948      -1.08787430       0.08358755
H        1.36016342       0.41387842      -0.47185790      -0.67865857       0.01524865      -0.38148216
H       -1.52772710       0.93499141       0.46453629       0.07845840      -0.97101770       0.21189414
H       -0.10676083       1.82891710       0.45655611       0.58282738       1.79236366       0.54233569
H       -1.16056914       1.53655947      -1.03679546       0.84861914       0.40422064       0.05007419
H        0.19956955      -0.85774224       1.41937716      -0.10848107       0.84735699       0.15429855
9
Properties=species:S:1:pos:R:3:REF_forces:R:3 REF_energy=-4209.633216082235 pbc="F F F"
C        0.29083806       0.38666877       0.23533118      -1.12321360       1.08188085      -0.30061860
C       -1.08813981      -0.08587034       0.81741295       1.16625274       3.48313814      -0.37174781
O        0.72030303      -0.35249064      -0.93221265      -0.59401394       0.94478972       0.50862281
H       -0.05072010       1.48585951      -0.05772544       1.35745104      -1.30344733       0.39021466
H        1.17046009       0.37521407       0.94450059      -0.73744561       0.31766779       0.16507867
H       -1.33675173       0.66792923       1.67062891       0.27592973      -1.36023662      -0.82538074
H       -1.79781886       0.17399212      -0.00643240      -0.11632001      -0.77539062       0.36027843
H       -1.02605611      -1.09472917       1.11617397      -0.46852296      -1.86450779       0.62191267
H        1.10698083       0.40110671      -1.41438332       0.23988255      -0.52389419      -0.54836009
9
Properties=species:S:1:pos:R:3:REF_forces:R:3 REF_energy=-4209.618327399334 pbc="F F F"
C       -0.52278111      -0.11181539       0.16359296       2.90436679      -1.41267525      -2.60973706
C       -0.19781463       1.08549190      -0.72146278      -0.34217591       0.30630068       0.17640037
O        0.65062758      -0.92232806       0.47390114      -2.29405576      -0.96655236      -4.12115585
H       -0.95953645       0.22958004       1.02766280      -1.62136714       0.80704379       2.83981106
H       -1.19602613      -0.72042769      -0.44725074      -0.52039456      -0.64232528       0.30163269
H       -0.96355676       1.83353333      -0.46917834       0.07315026       0.70731136       0.22985839
H        0.83222920       1.44524101      -0.46913307      -0.41758040       0.11469754      -0.52091593
H       -0.43700334       0.92303518      -1.79627263       0.87407425      -0.23254694       0.02271642
H        0.98193599      -0.67442493       1.27939079       1.34398247       1.31874647       3.68138986
9
Properties=species:S:1:pos:R:3:REF_forces:R:3 REF_energy=-4209.540759996868 pbc="F F F"
C        0.17653862       0.51337543      -0.35957544      -1.10683763       0.09184074       0.93201828
C       -1.28498552       0.02348906       0.10285169      -0.49217156       3.63481411      -1.75781102
O        1.05702888      -0.43644372       0.25039250       0.14508608      -1.16442900      -1.15811098
H        0.27117733       0.61693278      -1.50140549      -0.02151803      -0.24533576       0.92578618
H        0.43115494       1.56348162       0.09805387      -0.31183997      -1.57516775      -0.64999956
H       -1.17447675      -0.94959447       0.44000990       0.21792801      -2.39505230       1.48047659
H       -1.81265150       0.71777667       0.81201859       0.70852672      -0.50804987       0.28171986
H       -2.08636089      -0.05130956      -0.66339646       0.36754894       0.12743556      -0.65342298
H        0.79991094      -1.36828017      -0.10070977       0.49327749       2.03394428       0.59934368
9
Properties=species:S:1:pos:R:3:REF_forces:R:3 REF_energy=-4209.5425574740875 pbc="F F F"
C       -0.08497829       0.50220004      -0.34235092       0.36606069      -3.49547101      -0.34205440
C       -1.18334026      -0.37119031       0.31077910      -2.93924689       3.63125175      -2.79707027